<?xml version="1.0"?>
<VTKFile type="UnstructuredGrid"  version="0.1"  >
<UnstructuredGrid>
<Piece  NumberOfPoints="32" NumberOfCells="0">
<Points>
<DataArray  type="Float64"  NumberOfComponents="3"  format="ascii">1.15 0.5 0  0.625 0.7165063509461096 0  0.3750000000000001 0.7165063509461097 0  0.25 0.5 0  0.3749999999999999 0.2834936490538904 0  0.625 0.2834936490538904 0  0.5579406864453027 0.6783230968053413 0  0.6875 0.5 0  0.5579406864453026 0.3216769031946587 0  0.3483093135546973 0.3897902651951613 0  0.3483093135546974 0.6102097348048388 0  0.5 0.7165063509461096 0  0.6875 0.3917468245269452 0  0.4999999999999999 0.2834936490538904 0  0.6875 0.6082531754730548 0  0.4531249999999999 0.35573358419491 0  0.4531250000000001 0.64426641580509 0  0.3124999999999999 0.3917468245269452 0  0.3125 0.6082531754730549 0  0.3483093135546974 0.5 0  0.5625 0.7165063509461096 0  0.6227203432226514 0.4108384515973293 0  0.71875 0.4458734122634726 0  0.5625 0.2834936490538904 0  0.6227203432226514 0.5891615484026707 0  0.71875 0.5541265877365273 0  0.3437499999999999 0.3376202367904178 0  0.34375 0.6623797632095823 0  0.3483093135546973 0.4448951325975806 0  0.28125 0.4458734122634726 0  0.28125 0.5541265877365275 0  0.3483093135546974 0.5551048674024194 0  </DataArray>
</Points>
<Cells>
<DataArray  type="UInt32"  Name="connectivity"  format="ascii"></DataArray>
<DataArray  type="UInt32"  Name="offsets"  format="ascii"></DataArray>
<DataArray  type="UInt8"  Name="types"  format="ascii"></DataArray>
</Cells>
<PointData  Vectors="displacement"> 
<DataArray  type="Float64"  Name="displacement"  NumberOfComponents="3" format="ascii">7.5000000000000000e-01 5.0000000000000000e-01 0.0000000000000000e+00  6.2500000000000000e-01 8.4641016151377535e-01 0.0000000000000000e+00  3.7500000000000006e-01 8.4641016151377557e-01 0.0000000000000000e+00  2.5000000000000000e-01 5.0000000000000000e-01 0.0000000000000000e+00  3.7499999999999989e-01 1.5358983848622465e-01 0.0000000000000000e+00  6.2500000000000000e-01 1.5358983848622465e-01 0.0000000000000000e+00  5.5794068644530270e-01 8.2098157424961427e-01 0.0000000000000000e+00  6.8750000000000000e-01 5.0000000000000000e-01 0.0000000000000000e+00  5.5794068644530259e-01 1.7901842575038557e-01 0.0000000000000000e+00  3.4830931355469724e-01 3.0162247735129050e-01 0.0000000000000000e+00  3.4830931355469741e-01 6.9837752264870978e-01 0.0000000000000000e+00  5.0000000000000000e-01 8.6650635094610962e-01 0.0000000000000000e+00  6.8750000000000000e-01 3.1674682452694536e-01 0.0000000000000000e+00  4.9999999999999994e-01 1.3349364905389038e-01 0.0000000000000000e+00  6.8750000000000000e-01 6.8325317547305475e-01 0.0000000000000000e+00  4.5312499999999994e-01 2.1307510675063696e-01 0.0000000000000000e+00  4.5312500000000006e-01 7.8692489324936310e-01 0.0000000000000000e+00  3.1249999999999994e-01 3.1674682452694525e-01 0.0000000000000000e+00  3.1250000000000000e-01 6.8325317547305497e-01 0.0000000000000000e+00  3.4830931355469735e-01 5.0000000000000000e-01 0.0000000000000000e+00  5.6250000000000000e-01 8.6062168937068806e-01 0.0000000000000000e+00  6.2272034322265135e-01 3.2267066375345832e-01 0.0000000000000000e+00  7.1875000000000000e-01 4.0984457765732818e-01 0.0000000000000000e+00  5.6250000000000000e-01 1.3937831062931194e-01 0.0000000000000000e+00  6.2272034322265135e-01 6.7732933624654157e-01 0.0000000000000000e+00  7.1875000000000000e-01 5.9015542234267193e-01 0.0000000000000000e+00  3.4374999999999989e-01 2.2953373297198404e-01 0.0000000000000000e+00  3.4375000000000000e-01 7.7046626702801602e-01 0.0000000000000000e+00  3.4830931355469730e-01 3.9367913803356824e-01 0.0000000000000000e+00  2.8125000000000000e-01 4.0984457765732812e-01 0.0000000000000000e+00  2.8125000000000000e-01 5.9015542234267226e-01 0.0000000000000000e+00  3.4830931355469741e-01 6.0632086196643176e-01 0.0000000000000000e+00  </DataArray> 
</PointData> 
</Piece>
</UnstructuredGrid>
</VTKFile>