# vtk DataFile Version 3.0
vtk output
ASCII
DATASET POLYDATA
POINTS 4 float
0.0 0.0 0.0
1.0 0.0 0.0
1.0 1.0 0.0
0.0 1.0 0.0

POINT_DATA 4
SCALARS scalars float
LOOKUP_TABLE default
1.0
2.0
3.0
4.0

VECTORS vectors float
1.0 0.0 0.0
0.0 1.0 0.0
-1.0 0.0 0.0
0.0 -1.0 0.0
